ITEM: TIMESTEP
4662600
ITEM: NUMBER OF ATOMS
375
ITEM: BOX BOUNDS pp pp pp
0.0000000000000000e+00 1.5516553065000000e+01
0.0000000000000000e+00 1.5516553065000000e+01
0.0000000000000000e+00 1.5516553065000000e+01
ITEM: ATOMS id type x y z ix iy iz vx vy vz fx fy fz mass 
222 2 4.42211 3.70677 3.50079 -1 4 4 7.01022 13.1112 46.092 0.32036 0.0681571 0.423511 1 
216 1 5.15006 3.19719 3.08265 -1 4 4 6.00222 -5.54631 10.8456 -0.704035 0.10188 0.338892 16 
77 2 3.93953 2.16255 2.40577 0 -4 -2 20.9647 28.3429 -0.340848 -0.414854 -1.14579 -0.608135 1 
79 1 3.26262 1.40389 2.22999 0 -4 -2 -2.84091 -1.47866 -7.68816 0.398513 1.15813 0.870882 16 
78 2 2.95232 1.30002 3.1694 0 -4 -2 10.3905 7.94656 5.5664 -0.305727 -0.24274 -0.0258163 1 
6 2 0.762079 2.39957 0.0859693 -7 -5 1 -1.14584 37.0943 22.5102 -0.10441 0.0542281 -0.982193 1 
104 1 1.05107 4.77738 1.84693 7 -1 -5 -8.15041 3.65453 -13.4722 0.00704209 1.42988 -0.965273 16 
258 2 1.00281 1.76869 1.37912 -7 -5 1 11.1709 20.4384 7.54783 -0.625477 0.313732 0.164125 1 
5 1 0.310343 2.34576 0.947429 -7 -5 1 -4.81464 -0.60106 2.79958 0.789103 -0.803177 1.12369 16 
325 2 2.73563 3.72892 0.587186 -1 -7 10 -4.98363 -14.2752 -18.0681 0.106724 0.289943 0.250799 1 
101 2 0.84089 3.83381 1.83683 7 -1 -5 4.41013 -14.1234 -23.2202 -0.245828 -0.860788 -0.345824 1 
107 2 0.791082 5.0708 0.8517 7 -1 -5 -2.78338 -32.4833 -0.734594 0.868932 -0.497473 1.66505 1 
237 1 2.40017 1.03949 5.02094 -4 -2 -2 -8.84266 -1.58289 5.63532 1.68504 -0.543845 -0.159133 16 
123 2 1.43779 1.09723 4.94207 -4 -2 -2 1.64534 -33.6393 1.30414 -0.630222 0.505761 -0.300151 1 
215 2 5.37042 3.75963 2.32849 -1 4 4 16.4377 8.26922 -33.0358 0.354257 0.198868 -0.662968 1 
51 2 6.16599 4.2287 0.268898 -3 -1 -5 12.7223 18.045 -8.05192 0.645315 0.416709 0.268172 1 
52 1 5.92858 3.30242 0.104499 -3 -1 -5 5.00698 -0.538172 -8.38886 -0.178203 -0.941311 0.367113 16 
53 2 6.65589 2.66032 0.447111 -3 -1 -5 -6.21937 31.626 7.46658 -0.703213 1.1336 -0.800899 1 
185 1 6.6837 0.871164 3.5066 6 4 -4 -2.64241 0.0310957 1.62968 -0.0694139 0.0246689 0.243225 16 
73 1 9.02609 4.28698 2.26412 -8 -3 -5 -0.142755 3.61257 3.72457 -1.9443 0.70349 -0.532059 16 
361 2 9.89287 3.93846 2.20014 -8 -3 -4 -10.4429 6.91179 -31.3935 2.76943 -0.985523 -0.786834 1 
67 2 7.76579 3.95415 4.53333 -1 4 5 -12.9772 32.7274 6.60021 0.374612 -1.53467 0.895355 1 
109 2 9.01658 4.36148 3.21688 -8 -3 -5 -11.9493 -14.1683 -5.037 -0.42854 0.551675 1.35994 1 
3 1 9.98923 0.632853 2.74127 1 -1 1 2.35886 5.03458 2.03654 0.110301 0.270349 0.38662 16 
207 2 6.15253 0.558356 2.75008 7 4 -4 -27.616 -22.4125 25.0289 0.0614626 -0.207099 -0.14381 1 
2 2 10.0467 1.16462 3.58028 1 -1 1 -24.3955 25.1922 -0.131627 0.116698 -0.458799 -0.534952 1 
179 2 7.41427 0.240212 3.60052 6 4 -4 -24.3409 -5.80423 -5.69809 0.0882818 -0.239888 -0.18549 1 
192 2 7.6462 2.54135 3.88367 -1 4 5 -24.3869 45.3288 31.1607 0.258423 0.283063 1.528 1 
193 1 7.96424 2.97675 4.75396 -1 4 5 -2.05052 -6.76644 -1.24192 -0.666904 1.02387 -2.0071 16 
182 2 8.16683 0.718672 0.151417 1 1 -2 -11.3203 -16.1858 -8.53831 -0.375448 0.425668 0.339318 1 
32 2 14.6433 3.19185 4.63108 6 0 1 -28.7941 -25.018 -33.94 0.620183 1.3068 -0.117485 1 
31 1 15.1234 4.08192 4.59748 6 0 1 -6.77892 6.0255 5.26555 -0.896627 -1.65514 1.39181 16 
1 2 10.4408 1.19317 2.07727 1 -1 1 43.0091 -22.6336 23.2612 -0.323016 0.0667793 0.13402 1 
159 2 15.2253 4.23268 3.66306 6 0 1 -36.3912 31.6689 9.65442 0.361237 0.523613 -1.28095 1 
83 2 13.0273 0.559182 1.38449 -4 1 4 -18.4295 32.9292 -26.5186 0.180476 1.2617 1.3281 1 
81 2 13.8143 1.84024 1.33653 -4 2 4 -31.6611 0.689143 17.4414 1.75066 1.42742 -1.28659 1 
82 1 13.2982 1.38816 1.97329 -4 1 4 2.41744 2.68405 -6.05709 -1.72684 -2.9805 -0.0627171 16 
310 1 11.6633 3.45181 2.70992 -2 2 -4 -3.97179 -2.70011 -0.0874514 -0.609504 1.072 -1.96174 16 
309 2 11.6915 3.4624 3.67602 -2 2 -4 12.9901 13.7205 -25.2831 -0.0510913 -0.69813 0.995149 1 
297 2 11.8659 2.58961 2.30189 -2 2 -4 0.236646 -67.534 5.45178 0.773047 -0.0902645 0.651258 1 
102 2 13.3 5.04081 1.05669 -3 -4 6 -2.12461 13.0643 -6.34048 -0.0823847 0.0468966 0.229015 1 
106 2 14.7839 1.00299 3.38796 0 2 -1 30.995 23.0153 -0.72263 -0.406776 -0.149168 -0.354719 1 
95 1 15.4075 0.861385 4.12292 0 2 -1 6.38203 2.55282 -11.0352 0.137154 -0.600189 0.870103 16 
315 1 3.43069 6.08308 3.94725 -6 0 4 -2.48008 2.58183 -1.51636 -0.983945 -1.68664 -1.49928 16 
33 1 3.69734 7.30774 0.809582 -1 -1 -4 5.72566 6.65454 5.22308 1.15219 1.1698 -1.96232 16 
273 2 3.71065 7.10571 1.74087 -1 -1 -3 10.2395 8.4576 17.7912 0.197635 -0.0964919 1.20842 1 
23 2 4.51008 7.89029 0.604229 -1 -1 -4 12.622 -22.0134 -40.4781 -1.45675 -0.994353 0.710858 1 
318 2 3.21122 5.59107 4.75708 -6 0 4 -3.76373 30.2354 27.609 0.169782 0.215056 0.598154 1 
291 2 1.86927 8.34024 0.309841 1 1 1 -8.55644 45.2985 -1.95077 1.71168 -1.62492 0.762329 1 
213 1 1.8579 8.51462 3.5213 0 -6 -1 4.37205 -3.22387 -2.37899 3.56909 1.04798 0.0292724 16 
214 2 0.96231 8.62218 3.30181 0 -6 -1 -24.4406 -13.8985 -14.6914 -2.64298 -0.359836 -0.132756 1 
40 2 2.92315 9.58683 2.15523 4 -1 -4 54.6262 20.8119 4.41205 -0.69384 -0.065687 0.169696 1 
314 2 2.97239 5.43855 3.2918 -6 0 4 0.683914 19.209 0.615187 0.425659 1.38918 0.691062 1 
80 2 2.11866 7.6948 3.94751 0 -6 -1 7.42639 31.1885 -2.64392 -0.354956 -0.733972 0.208937 1 
132 2 8.08764 5.42399 1.33742 -6 0 6 -16.9853 27.8968 -31.4351 0.228721 -0.516695 0.247646 1 
124 2 5.28319 9.01326 4.90214 2 -3 3 -3.89412 4.90047 -20.571 1.44055 1.44901 -0.861948 1 
280 2 7.15189 7.02283 3.88398 6 4 2 -25.1364 35.0269 -4.02619 -1.25354 0.293754 2.14475 1 
321 1 6.69736 6.94768 4.82033 6 4 2 4.88114 0.594935 11.9479 1.07604 -0.00895422 -1.35889 16 
298 1 9.34402 5.60486 4.95742 -7 2 7 0.864207 -4.49228 1.18058 1.39152 -0.614168 -0.169375 16 
122 1 5.82699 9.87825 4.72519 2 -3 2 -5.07376 1.32155 5.45979 -0.648823 -3.49226 -0.521546 16 
48 2 9.93566 6.65398 2.19957 1 2 2 -54.7485 0.4797 -9.24202 0.249752 -0.215225 -0.0865586 1 
47 1 9.83797 7.60708 2.0356 1 2 2 4.90865 -2.63401 8.53378 -0.0539211 0.515635 -0.0834567 16 
254 1 7.3758 5.92435 0.891304 -6 0 6 -11.2926 -15.7727 1.83291 -0.330505 -0.730783 -0.904694 16 
264 2 7.30446 6.73076 1.41246 -6 0 6 10.6257 1.55439 -5.43512 -0.117821 1.08129 0.405639 1 
370 2 7.58793 8.90481 3.08677 -1 0 -2 15.1831 3.56122 -15.5698 -0.693452 -0.0517896 -1.01974 1 
371 1 7.15052 8.39413 2.35444 -1 0 -2 5.26385 7.05779 6.83428 2.03935 -1.84185 1.79714 16 
374 2 6.55112 8.89072 1.84108 -1 0 -2 -1.50608 7.61552 -26.0242 -1.36331 1.92352 -0.955453 1 
356 1 10.2643 10.27 3.72315 -5 5 -1 1.64017 -3.06928 -6.97385 -0.160296 -1.32719 -2.31161 16 
239 1 6.24449 9.90985 0.247113 1 5 0 -4.64157 -9.02718 11.818 1.37416 0.771484 -0.0692796 16 
103 1 13.2899 5.61053 0.26425 -3 -4 6 -2.04919 -3.9794 -6.47116 0.40668 0.164649 0.347176 16 
44 2 10.7445 8.00911 2.00455 1 2 2 7.63306 18.8238 -14.5808 -0.117779 -0.612926 0.0285352 1 
306 2 15.329 8.18451 1.7397 5 3 4 7.65832 9.76608 2.30625 -0.0842809 0.802421 1.08571 1 
50 1 12.504 8.26317 1.60649 -8 0 5 -7.71274 7.63826 0.36702 0.0510105 -1.60291 -2.32383 16 
54 2 12.1515 8.92797 0.966125 -8 0 5 -3.12979 30.099 25.6073 -0.0209578 0.452433 0.322282 1 
49 2 12.6382 7.44467 0.947645 -8 0 5 -16.4756 10.2409 -41.08 -0.0540953 1.28067 1.67773 1 
271 2 13.9959 8.74174 2.23577 5 3 4 39.6986 10.9155 13.3596 0.830592 -0.196201 0.624517 1 
270 1 11.2983 7.6306 4.72127 0 -5 7 -1.33408 -11.6 -2.77518 2.79895 1.13386 2.34401 16 
304 1 14.9828 8.71656 2.52746 5 3 4 4.908 -1.30725 -0.181328 -1.0115 -0.43375 -1.95014 16 
268 2 10.6892 7.53718 4.05803 0 -5 7 -27.8715 24.8091 18.142 -3.3036 -1.04772 -3.03473 1 
269 2 11.5832 8.52853 4.44735 0 -5 7 9.48451 20.1324 -14.3536 0.326322 0.166243 0.536099 1 
41 1 3.22749 10.4849 1.93656 4 -1 -4 2.0157 1.73466 -9.93368 0.250839 1.25793 -0.789126 16 
39 2 2.58741 10.9801 1.34061 4 -1 -4 10.4625 36.3785 5.24363 0.895717 -1.28942 1.00256 1 
114 2 0.529578 10.7937 1.71019 5 2 -4 -16.5142 -0.616381 39.2746 0.0698349 -0.158767 0.0888985 1 
120 2 1.05815 12.2107 1.33461 5 2 -4 35.3928 -21.3305 -3.9312 0.555463 0.683245 -0.931613 1 
89 2 3.25285 15.2205 2.04333 1 2 1 18.9709 -10.7738 9.99938 0.334657 0.64521 -0.00690879 1 
43 1 3.1968 14.2407 2.09917 1 2 1 -8.11064 -4.5794 -1.36753 -0.512591 -0.591608 1.31763 16 
261 2 3.23258 11.4938 3.86039 -1 -7 8 44.9392 6.56832 -9.50396 -0.00112119 0.191968 -0.170398 1 
260 1 3.27874 12.3404 4.36439 -1 -7 8 2.79925 -0.0870585 -3.42826 0.432793 -0.656507 1.78731 16 
42 2 2.97948 14.0932 3.0733 1 2 1 -70.0451 -17.0603 -12.0661 0.325895 -0.255444 -1.13173 1 
74 2 0.568296 12.7576 3.81522 4 -3 -5 -22.6901 57.7295 -14.3284 -0.812609 2.18979 0.901492 1 
331 2 4.92191 13.7902 2.05377 -1 -6 -3 7.05249 -13.6215 -22.4042 -0.208785 0.174382 -0.351096 1 
113 1 0.633197 11.7149 2.02741 5 2 -4 12.0685 16.0068 -1.67632 -1.10937 -0.367511 0.772685 16 
75 1 0.500697 13.5986 4.46376 4 -3 -5 3.82661 13.6493 3.64637 2.2048 -3.03846 -0.826426 16 
76 2 1.43295 13.3675 4.84929 4 -3 -5 32.4353 33.9242 -36.1476 -1.28152 0.857421 -0.165227 1 
302 2 2.14014 14.6039 0.517723 0 0 5 -9.6353 14.5745 11.3798 0.544315 -0.516322 0.282808 1 
134 2 5.52081 15.3756 4.80054 -4 -1 3 -18.6597 4.83563 29.0057 0.555275 0.316802 -0.477233 1 
334 1 5.82224 13.8956 1.64665 -1 -6 -3 -1.59278 2.55403 -0.00595624 -0.874153 1.37002 -1.10738 16 
351 2 7.98581 12.8248 4.44348 -2 -3 -1 -23.2786 -4.8979 8.92468 -1.448 -1.34739 0.277563 1 
353 1 7.30245 12.1922 4.89768 -2 -3 -2 6.30054 0.484086 5.08244 0.868566 1.26639 -0.0897266 16 
57 2 7.00543 11.5043 4.26785 -2 -3 -2 27.0101 -26.2617 19.8324 0.326799 0.119452 0.0664136 1 
65 2 9.25618 14.2814 2.81625 2 -1 2 -8.81528 13.5489 -5.6566 -0.321759 -0.849816 0.577355 1 
238 2 6.93879 10.646 0.210054 1 5 0 43.4079 19.9324 -0.565018 -1.02042 -0.481418 0.567683 1 
320 1 8.52683 11.9815 0.287707 5 3 -3 6.26593 -1.5831 2.50249 0.482588 -3.16388 2.40224 16 
319 2 8.6356 12.7956 0.726463 5 3 -3 -1.83475 -25.4861 5.69076 0.140521 2.01984 0.893978 1 
58 1 8.98194 13.3552 3.11799 2 -1 2 1.8278 6.66461 -5.71845 2.03692 0.751394 0.506489 16 
66 2 9.8004 13.0775 3.69146 2 -1 2 21.5084 23.5526 4.29744 -1.28791 0.437483 -1.0503 1 
349 2 6.37123 13.3057 2.11714 -1 -6 -3 -4.55092 45.1863 -0.922887 1.32004 -1.40231 1.11981 1 
263 2 10.0827 10.6176 0.332553 -4 -1 -5 -13.5983 15.1614 -14.7963 -0.103531 0.0958121 0.415199 1 
168 2 14.1533 10.7004 3.92509 1 2 3 -27.4779 -31.7409 -16.6272 0.22069 -0.699754 -2.69605 1 
223 2 11.3583 14.9776 1.49575 2 -2 0 20.8558 -21.5814 36.9772 -0.528985 0.461446 -0.216511 1 
240 1 11.9629 14.7119 0.771181 3 -2 0 0.323934 -0.437124 -6.78285 -0.0918912 -0.0751282 1.21971 16 
167 1 13.8781 10.8203 4.80355 1 2 3 11.733 -0.697008 3.82177 -1.16686 0.151112 1.52723 16 
357 2 10.6722 10.9174 4.24306 -5 5 -1 -9.4614 -12.3099 32.7089 0.988376 1.87681 2.12662 1 
247 2 12.3864 13.9554 1.26065 3 -2 0 31.238 9.97224 -4.51159 0.790387 -0.425488 -0.815854 1 
354 2 10.7058 10.5191 2.863 -5 5 -1 2.01132 5.61745 19.8786 -0.757378 -0.635896 -0.0647065 1 
365 1 13.6119 12.6802 0.971439 5 0 1 3.26992 1.02569 3.37038 0.373612 -0.672214 2.05169 16 
360 2 14.4638 12.2303 1.33375 5 0 1 -3.60737 7.68049 17.545 -1.51536 0.703788 -0.771107 1 
267 2 11.2999 11.4563 0.707394 -4 -1 -5 -20.7456 -3.24835 30.7724 0.0891978 -0.291692 0.168414 1 
266 1 10.9143 10.5653 0.859913 -4 -1 -5 -3.24602 -3.9663 -3.65713 0.309689 0.193002 -0.310641 16 
94 2 15.4782 15.3945 4.3083 0 1 -1 -13.9129 27.2065 -19.32 -0.106607 0.549883 -0.629413 1 
316 2 13.3659 12.3518 0.0489846 5 0 1 3.00333 42.2135 13.9557 1.19479 0.269539 0.640569 1 
140 2 4.06348 0.0100508 5.28909 -4 1 3 37.3986 -8.01014 32.9488 0.640919 -1.08739 -0.202531 1 
219 2 4.21478 3.06347 6.63539 3 1 -1 38.9375 -2.21384 -32.1748 0.893646 -0.0135246 0.378391 1 
224 2 3.08955 4.14291 6.41541 3 1 -1 -25.7353 21.5011 -19.6265 -0.143564 0.504503 0.806171 1 
221 1 3.4537 3.28784 6.08918 3 1 -1 6.96841 -8.07497 -3.55413 -0.497259 -0.556158 -1.12452 16 
8 2 0.584318 2.7507 8.29218 4 4 4 -25.8718 17.9792 -10.6624 -0.32235 0.329121 0.32039 1 
217 1 4.6271 1.45881 9.69007 3 2 -2 -0.831317 -7.64823 4.90369 -2.90848 2.49737 1.36167 16 
218 2 3.77033 1.18063 9.28684 3 2 -2 -18.3936 22.4362 2.41823 0.700778 -0.0298793 0.0254027 1 
12 1 1.25282 2.1186 8.0055 5 4 4 -0.466274 -5.27023 0.918506 0.548822 -1.03263 0.470935 16 
7 2 1.73765 2.50303 7.27113 4 4 5 -3.2356 -39.1877 -14.8405 0.490773 0.526349 -0.394407 1 
105 2 2.82741 1.88335 5.32261 -4 -2 -2 9.40955 -15.7585 3.31053 -0.607751 0.302056 0.243315 1 
342 2 0.216239 0.122799 7.51364 -2 3 6 -36.4609 17.2492 -31.9554 1.2276 1.51066 -0.865744 1 
336 2 4.68183 3.2421 9.76667 -1 -4 -7 30.3995 -2.13126 -45.6711 0.195334 -1.28378 -0.209843 1 
337 1 4.63511 4.20589 9.74231 -1 -4 -7 3.80953 -3.23452 -6.45617 1.02293 1.72878 -0.852004 16 
250 2 3.00198 4.81518 10.1444 -4 -3 5 20.3631 5.56395 1.90502 0.872987 -0.432537 -0.13594 1 
91 2 10.1734 3.01427 5.39979 -5 -2 3 35.7505 2.12573 15.806 -0.921746 0.498151 -0.487037 1 
220 2 5.2818 0.869271 9.42129 3 2 -2 -4.13941 1.0919 -11.4801 1.83511 -2.3328 -1.22369 1 
118 2 5.91826 1.90039 7.61652 -3 -1 2 -1.58716 17.8278 -30.5046 -0.182731 -0.755523 0.0991286 1 
117 1 6.24791 2.65177 7.09887 -3 0 2 -2.2842 -0.729157 -8.21423 -0.175597 0.566523 0.0354703 16 
119 2 6.60962 2.27541 6.27261 -3 -1 2 -17.8949 17.2578 -6.69806 0.0926021 0.207881 -0.247862 1 
339 2 5.17915 4.52063 8.94943 -1 -4 -7 -19.8963 15.0755 47.6427 -0.993653 -0.677859 1.08784 1 
172 1 9.00455 2.12733 8.21421 3 10 -4 5.88141 4.9495 -11.5498 0.509965 -0.93726 -1.50578 16 
173 2 8.26977 2.27668 8.78365 3 10 -4 -30.5301 -31.2912 3.05772 -1.10609 1.08135 2.11867 1 
174 2 8.43781 1.71309 7.52758 3 10 -4 -14.1326 11.1034 -4.06144 0.813199 -0.0277182 -0.705185 1 
189 2 9.72361 0.969855 9.34047 -1 -1 0 -16.5052 -23.7594 -20.2741 -0.110211 -0.823334 0.472757 1 
141 2 8.97822 3.76317 10.2732 3 -2 1 -41.9454 -14.0573 -10.166 -0.473298 -0.425562 0.309038 1 
176 1 9.78293 0.154354 9.94463 -1 -1 0 2.37098 7.31034 -5.00879 -1.00358 0.844549 -0.421491 16 
26 1 11.1499 4.32828 8.7815 2 2 2 3.61156 -2.23594 -1.67126 -1.04993 0.0570712 -1.56118 16 
25 2 10.7877 3.53529 8.26609 2 2 2 -28.7666 11.4538 -10.7971 0.375306 1.59271 0.282559 1 
93 1 11.119 3.18054 5.26614 -5 -2 3 -0.645694 -7.36309 0.702119 -0.323227 -0.11975 0.142397 16 
92 2 11.425 2.58234 5.95729 -5 -3 3 20.7952 3.34457 -88.7547 1.1434 -0.485161 0.651872 1 
90 2 11.9448 3.73913 10.1262 -7 -1 -5 -50.5256 -0.364012 45.2812 -0.74941 0.999693 -0.868044 1 
248 2 14.7333 1.65764 6.30152 -3 -4 -4 8.65275 2.03044 -37.4124 -0.106638 -1.26718 -0.350975 1 
372 1 14.3322 2.25929 6.93671 -3 -4 -4 -2.22868 3.80568 3.59342 1.00156 2.22332 -1.02798 16 
373 2 14.9191 3.04496 6.62511 -3 -4 -4 11.2101 -0.803683 -27.4188 -1.46679 -0.816895 1.0387 1 
178 2 12.6713 1.52474 8.02705 9 -3 -4 -35.3927 24.2178 -35.5569 -0.454431 0.229311 -0.764891 1 
183 2 11.4255 2.00405 8.73969 10 -3 -4 -11.0356 -11.6262 -37.4174 0.22644 -0.725903 -1.30248 1 
184 1 11.702 1.65697 7.83126 9 -3 -4 3.31347 9.97141 -0.914227 0.586777 0.0956385 1.97736 16 
27 2 11.0262 5.16334 8.19505 2 2 2 -23.7354 14.3136 -19.9471 0.234927 -1.26926 1.13873 1 
352 2 14.9475 0.207948 8.78052 -3 3 6 -8.1242 29.5435 8.20346 -0.323219 2.20358 2.90145 1 
86 2 15.3 4.52504 10.196 6 0 6 10.694 -20.8332 16.4139 -0.507701 -1.03372 0.361111 1 
175 2 10.6532 0.0345301 10.3239 -1 -1 0 28.4422 -11.5285 -4.8772 1.28299 -0.00419644 0.390916 1 
130 2 2.09117 5.58204 9.17762 -4 -3 5 -0.806692 -24.6357 -13.4017 0.225101 -0.933128 1.10753 1 
311 2 1.82756 5.89898 7.01845 0 7 -2 -12.2861 -12.6505 7.60222 0.548381 -0.35832 0.208535 1 
312 1 2.63963 5.45171 7.40292 0 7 -2 -1.36294 3.82556 -4.209 -0.155109 2.3047 -1.23419 16 
313 2 3.40705 6.20229 7.24703 0 7 -2 0.096272 5.11222 15.2426 -1.18649 -1.91368 0.585509 1 
199 1 2.19346 8.18087 9.1304 4 5 -4 -1.31006 -5.06949 16.0858 -0.907249 -1.48012 0.619741 16 
249 1 2.11848 5.21379 10.134 -4 -3 5 -5.18013 6.13343 7.70763 -1.11295 1.61244 -1.02555 16 
200 2 1.33331 7.81626 8.69874 4 5 -4 -1.98985 16.8999 2.28522 0.859744 0.637871 0.381956 1 
163 2 2.31156 7.47381 9.84627 4 5 -4 -0.408912 47.1036 -7.82413 0.177042 0.928514 -0.889325 1 
198 2 0.932571 9.93685 7.60188 8 -4 -5 -31.4578 5.51689 22.4788 0.278705 0.0494932 -0.408819 1 
262 2 3.54573 9.58022 8.99447 1 -5 -4 -0.758117 -4.62798 33.9831 -1.74235 -2.83977 0.633383 1 
307 1 4.91791 6.38548 7.13209 -4 -3 -7 6.90004 6.48789 15.0496 2.31625 -1.00607 -0.875954 16 
348 1 0.365549 7.10705 5.81318 5 -4 0 2.61836 3.96622 -1.69904 0.0493663 0.369389 -0.392779 16 
343 2 0.0252692 8.02861 5.73653 5 -4 0 27.3096 -6.08306 13.0686 0.406397 -0.192113 -0.198032 1 
322 2 7.02304 7.70876 5.36907 6 4 2 62.3226 -10.9362 -35.8642 0.228633 -0.395402 -0.541076 1 
294 2 10.2637 5.84226 5.29018 -7 2 7 9.66065 -3.01784 3.01132 -1.43652 -0.163422 -0.193845 1 
55 2 8.68814 6.20285 5.3346 -7 2 6 -10.4181 24.0643 -13.6915 -0.266453 0.592196 0.272709 1 
308 2 5.69694 5.91374 6.68225 -4 -3 -7 28.6789 9.46049 6.76779 -1.52991 0.292111 -0.121411 1 
154 2 5.7703 7.03543 9.83563 2 2 0 -10.848 10.8655 -14.0056 0.852676 -1.7858 1.59328 1 
148 1 5.39752 7.867 9.6339 2 2 0 5.55649 -0.837952 8.9456 -0.984241 2.11888 -1.78771 16 
305 2 5.45677 7.02761 7.60031 -4 -3 -7 38.5637 -16.7274 18.5826 -0.314217 1.14828 0.827022 1 
72 2 9.12054 7.58692 7.20413 -2 -3 -5 -6.44688 10.9837 19.4741 -0.560794 0.121597 -0.0273442 1 
64 1 8.44414 8.20055 6.77347 -2 -3 -5 3.7557 -8.65227 5.93955 0.62731 -0.770414 0.534883 16 
30 2 7.55204 9.39007 8.09155 5 -4 1 -8.59876 -17.1927 6.54856 -0.102963 -0.0849576 0.186872 1 
29 1 7.17158 9.72048 8.94456 5 -4 2 -10.9027 -0.442835 -4.91814 0.322298 -0.0562529 0.0464871 16 
28 2 6.44796 9.06988 9.20713 5 -4 2 4.22022 -3.75623 -36.9482 0.334746 0.258164 -0.600353 1 
327 2 8.2649 8.60228 10.0194 -5 0 6 14.7002 27.6518 -32.3966 -0.666716 1.44856 -1.39554 1 
63 2 9.08982 8.87635 6.49324 -2 -3 -4 -4.3144 -11.5216 -23.4358 -0.180519 0.855681 -0.536925 1 
355 2 9.97445 7.44133 9.10863 -5 2 -2 15.2671 -22.2471 -50.552 0.817229 -0.83813 -0.873641 1 
225 2 13.8854 5.71528 5.72478 -1 -4 -3 -22.3569 11.6346 3.58311 -2.08969 0.282817 0.24016 1 
144 1 12.9424 5.9917 6.04453 -1 -3 -3 -4.79486 1.84996 -7.55665 1.74217 -0.179838 -1.2817 16 
143 2 12.5115 6.39498 5.217 -1 -4 -3 -19.5068 11.8897 -1.95135 0.641826 -0.171524 1.22362 1 
301 2 15.3395 6.7842 6.54582 4 -4 0 -11.4275 15.4843 -40.5065 0.0266725 -0.144025 0.379978 1 
232 2 15.1693 9.48537 9.85317 -1 -5 1 3.03549 -29.9573 21.4683 0.0494683 0.134345 0.400435 1 
35 1 15.2428 7.36751 8.52024 -6 7 5 11.5353 3.13364 0.472424 -2.28299 -0.794185 0.439884 16 
34 2 14.3699 7.14358 7.99584 -6 7 5 -4.50135 -6.46336 19.3514 1.70257 0.734609 1.4353 1 
289 2 15.0029 7.05029 9.55862 -6 7 5 -19.312 20.804 12.7835 -0.0701666 0.0873239 -1.73529 1 
277 1 10.5529 7.08398 8.31501 -5 2 -2 -6.34373 -5.30981 5.97577 -1.06644 0.940299 1.02006 16 
275 2 11.3556 7.6386 8.36977 -5 2 -2 -12.2681 25.4915 -32.555 0.0569089 -0.501003 -0.0779682 1 
196 1 12.982 9.39102 7.54592 -2 4 -2 1.82398 -6.43926 -4.10274 -1.68538 -1.30151 2.62973 16 
201 2 12.9129 9.89274 6.76115 -2 4 -2 -20.1987 -15.2637 21.6245 0.048727 1.16855 -2.14158 1 
202 2 12.0202 9.26979 7.85533 -2 4 -2 26.7776 -14.7161 -14.2818 1.83808 0.258267 -0.612148 1 
133 1 4.83016 14.8558 5.24219 -4 -1 3 4.18917 -9.31887 -9.58627 -1.43216 0.985234 0.547055 16 
197 1 0.436448 10.4724 6.94772 8 -4 -5 -0.476345 2.33249 -5.62099 0.56394 1.00008 -0.091442 16 
281 1 3.98427 10.3458 8.72904 2 -5 -4 -0.0572759 -4.04658 3.70098 1.4945 3.34427 -0.365887 16 
265 2 3.75764 12.1013 5.25769 -1 -6 8 -8.44481 -36.5937 -8.87416 -0.631277 0.706376 -1.55743 1 
186 2 0.978468 11.3468 6.869 8 -4 -5 3.6369 20.0588 28.6522 -0.810393 -1.275 0.736109 1 
151 1 1.36418 12.8587 7.80613 -4 -2 1 2.69323 9.8531 -10.0774 1.91079 -1.7822 0.318698 16 
150 2 1.92485 12.666 8.64002 -4 -2 1 16.2021 -30.0238 49.2421 -1.59437 1.07407 -1.5581 1 
153 2 0.777102 13.6206 7.79622 -4 -2 1 14.816 35.6121 -5.08282 -0.200769 0.943095 1.18989 1 
285 2 3.70689 11.0272 9.38929 1 -5 -4 -9.84226 -1.49142 16.5204 0.135899 -0.544834 -0.325049 1 
14 2 5.07945 11.3229 7.41073 3 0 -4 3.7703 -8.62272 -4.13797 0.636015 -0.25963 -0.100634 1 
366 2 5.28658 10.4546 5.2365 2 -3 3 30.0656 8.75718 20.8364 -0.895763 1.72605 1.25202 1 
203 2 8.2186 10.7841 10.0866 -1 -1 -1 14.1574 -3.99207 -3.19441 0.20442 0.392388 0.802428 1 
257 2 5.26658 15.0647 6.87865 1 6 -2 -13.3633 2.68874 -10.2506 0.0237549 0.113334 0.739918 1 
15 1 5.19753 11.9147 6.63814 3 0 -4 -6.71604 0.94656 3.81392 0.209345 0.65239 -1.25651 16 
256 1 5.55835 15.3029 7.8336 1 6 -2 6.23303 2.6772 7.77372 0.774483 -0.416069 -0.597014 16 
255 2 6.53371 14.9867 7.78581 1 6 -2 -10.5791 -17.2035 -1.84008 -1.10888 0.373811 -0.236892 1 
16 2 6.09865 11.973 6.13292 3 0 -4 -3.61989 -25.9202 -26.5139 -1.06535 -0.426453 1.15983 1 
70 1 5.67853 13.0718 10.097 5 2 -8 -3.59281 -8.61857 -2.87412 -1.99515 -0.540406 0.0795198 16 
69 2 5.15387 13.3066 9.28954 5 2 -8 -23.0347 3.17272 8.41194 0.717953 0.0844188 0.326746 1 
11 2 9.52958 15.0172 6.37839 -3 -1 -2 -25.1674 15.4713 -19.4105 0.0833266 0.293958 -0.293365 1 
71 2 6.5671 13.4041 9.94666 5 2 -8 4.61666 -35.8089 14.1356 0.940368 0.76835 -0.296059 1 
177 2 8.89315 14.4928 9.94692 4 -3 2 23.2079 -6.49736 18.9739 -0.0926361 -0.760571 -0.261465 1 
181 1 8.30828 13.7468 9.51252 4 -3 2 -1.83855 -7.09841 2.24057 -0.570121 1.28556 -0.600142 16 
180 2 8.31984 12.819 9.79411 4 -3 2 21.3261 19.9381 1.43597 0.927203 -0.649084 0.800604 1 
19 2 7.48353 13.5632 6.72076 -1 3 -1 -11.9499 -16.9762 46.0509 0.617988 0.640699 0.365059 1 
18 1 7.9256 14.3782 7.10006 -1 3 -1 -6.14015 1.96766 -2.61011 0.433647 -0.436577 0.529006 16 
13 2 8.17971 14.1656 8.14476 -1 3 -1 -30.8977 -5.53717 39.9021 -0.438928 -0.595896 -1.16392 1 
195 1 9.8008 10.6654 6.74846 -3 0 0 5.0112 3.59054 -5.25311 0.0782436 0.295302 -0.246937 16 
191 2 10.305 11.2958 6.16264 -3 0 0 -44.1957 4.94983 13.4781 -0.230827 -0.134088 0.340383 1 
169 2 14.7246 11.0623 5.17505 1 2 3 17.1263 -47.2519 7.41016 0.708857 0.171461 1.23981 1 
84 1 11.1135 12.7941 5.26333 -3 -3 5 -0.364792 -5.10838 2.0526 0.320743 0.593024 0.469355 16 
45 1 10.4288 15.3622 6.07749 -3 -1 -2 1.61586 -2.73124 -3.39429 -0.77298 -1.15032 0.422085 16 
46 2 10.888 15.3843 6.94488 -3 -1 -2 -23.9761 -11.9763 -35.2709 0.304426 0.657831 -0.0422222 1 
234 1 15.0703 10.4698 9.80995 -1 -5 1 1.79708 2.61105 3.01692 -0.24703 -0.910882 -2.58642 16 
231 2 15.007 10.506 8.76521 -1 -5 1 -17.124 0.847533 43.9434 0.189093 0.525565 1.57791 1 
278 2 13.4726 10.5997 10.2181 -1 -2 4 9.66053 -20.7636 -14.4061 -2.22791 0.0446498 1.09445 1 
350 1 15.1417 15.1798 8.07329 -3 2 6 -3.98075 -0.961141 0.0423024 -0.593601 -3.918 -2.14929 16 
194 2 10.434 10.3704 7.41492 -3 0 0 -5.11824 0.521787 -19.3434 0.239625 0.0838447 0.203484 1 
345 2 11.9926 13.2384 7.49147 -11 -2 1 7.59151 -25.1049 -26.6834 0.165949 -0.0241076 0.481017 1 
110 2 12.1192 12.8179 5.30877 -3 -3 5 -26.535 -22.9041 6.58538 -0.662888 0.0546723 -0.00702506 1 
367 2 14.4754 13.6128 5.59318 -1 3 3 38.6513 4.66711 -9.64481 2.37356 0.194609 -1.80911 1 
358 1 13.798 13.4673 6.2069 -1 3 3 -1.66288 6.31381 -9.93226 -3.01206 -0.545009 1.73236 16 
359 2 14.1834 13.3106 7.07958 -1 3 3 5.18916 21.0172 -46.6045 0.294478 0.250479 0.0645698 1 
111 2 10.8268 13.6941 5.68638 -4 -3 5 1.07678 -19.5848 -13.8465 0.403891 -0.560978 -0.785247 1 
344 1 11.6479 13.1176 8.41129 -11 -2 1 3.72595 0.632142 -3.59488 2.49947 0.96569 -0.135923 16 
346 2 10.8138 12.738 8.26337 -11 -2 1 28.9898 -48.3939 0.468892 -2.53671 -0.966551 -0.158634 1 
347 2 12.3462 14.0167 10.0309 0 -4 -3 -20.7177 23.8861 -2.54722 0.450834 0.651897 0.952843 1 
276 2 11.8706 11.0873 10.2008 -1 -2 4 -24.9293 -40.4322 20.0084 0.819938 -0.356951 0.531499 1 
324 1 2.97725 3.22113 15.3142 -1 -7 9 0.0517117 1.15136 -3.34344 1.48395 -0.212483 -1.14628 16 
317 2 3.99676 3.22635 15.2085 -1 -7 9 11.9143 4.54999 8.67354 -1.66348 0.222702 0.850213 1 
369 2 1.56369 1.17287 13.5467 0 -1 -7 -3.38853 28.9002 -22.5611 -0.147423 0.0753343 0.0623476 1 
364 2 0.505269 2.38517 13.479 0 -1 -7 -28.74 -26.5671 -8.87979 0.504561 -1.71784 0.417918 1 
368 1 0.700042 1.48756 13.9327 0 -1 -7 4.51822 -4.68579 6.3975 -0.0320926 1.96082 -0.918383 16 
9 2 3.89751 1.08112 12.6015 -1 -1 -4 43.0202 3.02469 -4.91977 -1.62183 -0.919051 -0.290014 1 
4 1 2.9822 0.555364 12.5053 -1 -1 -4 7.59277 2.20907 10.5383 1.0769 0.314174 -0.0395633 16 
10 2 2.61415 0.71146 11.6062 -1 -1 -4 -25.6249 0.632018 -5.81958 0.300407 0.268308 0.280613 1 
230 2 1.92908 4.70541 12.241 -2 -1 6 -11.6872 -7.02989 -5.25617 0.0431417 -0.429828 0.19612 1 
229 1 1.77616 3.74906 12.4164 -2 -1 6 -1.27363 -5.08443 9.57563 0.647422 -0.615294 3.28396 16 
228 2 2.01967 3.60418 13.4726 -2 -1 6 34.6678 -4.94365 7.02096 -0.422015 0.865283 -3.16903 1 
68 2 4.79019 2.79802 13.1316 0 6 -1 -23.3004 -31.5853 9.97849 -0.783651 1.64889 -0.520616 1 
87 2 0.398924 3.31696 10.9245 7 0 6 -2.48697 -9.31354 -10.1588 -0.69059 0.0991254 -0.272173 1 
286 1 0.189494 0.255203 10.6175 9 1 4 3.01549 1.9271 -12.7493 0.953374 -0.798684 -1.05631 16 
112 2 5.4377 1.88799 14.0413 0 6 -1 10.1671 1.89157 26.2632 0.688245 -0.468241 1.81389 1 
108 1 5.20536 1.94943 13.1282 0 6 -1 -0.476406 -8.02621 -2.10635 0.189249 -0.923147 -1.47896 16 
251 1 8.27345 3.13282 10.5783 3 -2 1 2.51021 -0.788846 -1.83271 0.153208 0.717136 -0.0265078 16 
332 1 7.47321 0.42402 12.0501 3 -1 3 1.53835 -1.13667 2.94057 -1.09112 2.83329 0.404458 16 
128 1 8.44346 4.41314 13.9549 2 2 -4 -1.05153 5.41354 8.09456 0.506925 0.357939 0.0307277 16 
190 1 7.78662 1.58089 15.3554 1 1 -3 2.95159 0.710263 4.14665 0.964277 -1.35425 -0.183293 16 
188 2 8.22465 1.53143 14.4766 1 1 -3 13.2005 -18.7317 -25.2816 -0.208917 0.491465 -0.0554406 1 
299 2 9.87011 2.92548 13.4157 -2 2 1 25.7223 19.5738 34.1924 0.0279423 0.0721901 0.159088 1 
252 2 8.49564 2.96371 11.5172 3 -2 1 20.6894 9.44766 -2.73038 0.446392 0.0587431 -0.162166 1 
171 2 7.54587 4.03364 13.8735 2 2 -4 6.31129 37.9305 14.5782 0.0569756 0.492872 0.31177 1 
330 2 8.43174 0.524469 11.9176 3 -1 3 20.6999 -5.18626 28.1881 0.385146 -0.0593406 -0.164404 1 
300 1 10.2611 2.28536 12.7854 -2 2 1 -4.77643 -1.70861 4.42428 -0.408221 0.523882 -0.196412 16 
333 2 6.15386 4.91247 11.1944 6 6 5 -16.2657 -22.2631 10.2603 -0.123213 0.584578 0.258397 1 
335 2 7.14865 1.43274 12.088 3 -1 3 -23.7889 -10.25 -1.23308 0.485363 -2.93629 -0.1956 1 
127 2 15.384 0.306199 14.8846 -1 -3 -2 -32.3984 -11.4385 12.885 0.070213 -0.384225 0.200882 1 
338 1 12.2676 3.39727 10.969 -7 -1 -4 8.64972 -1.42984 11.5681 0.308945 -0.725162 0.850461 16 
88 2 13.1426 4.97126 15.0516 -3 -4 5 35.0145 -7.11615 -4.28618 -0.539239 0.263722 -0.536534 1 
287 2 15.3025 0.280775 11.4727 8 1 4 9.89305 10.7781 -1.8532 -0.617506 0.455526 1.44533 1 
259 2 13.2285 3.35995 10.8106 -7 -1 -4 -0.127856 -29.1554 -55.332 0.876778 -0.158489 -0.0415776 1 
85 1 15.0783 3.57537 10.4419 6 0 6 5.93604 -2.33508 -2.59523 1.00552 0.681135 -0.098804 16 
244 2 13.1258 3.39988 13.9956 -3 3 3 -54.0467 -9.08645 -9.06845 0.843098 -1.47673 0.616683 1 
187 2 13.0788 0.60318 13.6723 4 -1 -5 11.6487 6.51305 8.44102 0.163369 0.301394 -0.810914 1 
145 2 11.7255 0.874278 13.0452 4 -1 -5 -22.1071 -7.6371 14.1024 -2.20725 0.0461136 0.2403 1 
147 1 12.6371 0.985842 12.8541 4 -1 -5 -7.79349 -0.733987 -2.96776 2.69106 -0.60327 0.738882 16 
56 2 10.9911 2.82505 12.3813 -2 2 1 -24.6841 26.134 -6.86635 -0.310449 -0.516859 -0.0129871 1 
245 1 12.5463 3.99074 13.5466 -3 3 3 -7.13265 7.65679 2.39605 -0.517497 1.39332 0.295415 16 
246 2 12.6361 3.70743 12.6114 -3 3 3 5.03633 -0.0139202 3.5278 -0.133052 0.228249 -0.551285 1 
375 1 0.655563 5.50253 14.8575 7 -1 -4 2.64346 0.885923 -5.5837 3.39657 2.20476 -0.319467 16 
290 1 1.16722 8.81654 15.4367 1 1 0 -7.03288 -5.60245 -4.80389 -0.459704 2.917 0.430769 16 
362 2 1.24949 6.42101 14.7418 7 -1 -4 6.18171 9.62318 15.6201 -2.38755 -3.09342 0.34072 1 
116 2 0.0184048 8.44341 12.8984 3 4 7 16.4594 -28.4615 -29.5973 -1.15087 -1.89589 1.05272 1 
164 2 3.60861 9.27117 12.1103 6 -4 2 23.0975 -29.1535 -13.3926 -0.196339 0.0976257 0.00684701 1 
20 2 3.86549 6.81663 13.0557 3 5 4 1.28166 -4.78293 0.498857 0.270227 -1.52077 0.898689 1 
21 1 4.03892 5.87257 13.4693 3 5 4 7.6593 0.4042 -7.4075 -0.35772 1.5474 -2.2684 16 
166 1 4.05024 8.57436 12.6233 6 -4 2 -8.21476 1.0352 -1.15573 -0.315648 -0.868189 -0.529034 16 
165 2 4.62696 9.03925 13.2503 6 -4 2 55.6571 -36.8283 -20.2282 0.252395 0.473699 0.0673327 1 
146 2 4.11469 6.03322 14.4034 3 5 4 7.81951 -25.7462 -16.0381 0.03045 0.276783 1.33918 1 
295 2 0.516579 8.307 14.9979 1 1 0 -13.0075 -27.0537 3.13207 -1.2798 -1.58911 -1.05235 1 
17 2 0.860776 10.3899 13.7293 -1 6 1 10.8273 64.2165 -7.98314 0.150246 -0.0255914 0.191157 1 
156 2 9.13913 8.36636 15.5021 -2 -1 -2 -2.87999 21.5669 7.6419 -1.07062 0.647232 -1.03641 1 
149 2 5.27937 8.45822 10.3896 2 3 0 9.28226 3.03799 -16.3919 -0.127119 -0.571281 0.908495 1 
326 1 8.90576 7.97599 10.3468 -5 0 6 -0.436024 -1.06871 -0.000209652 0.904352 -0.591749 0.0648125 16 
129 2 8.41223 5.20387 14.5587 2 2 -4 4.40735 -24.0448 -18.2483 -0.47831 -0.775106 -0.273315 1 
341 2 5.47017 5.74103 12.3405 6 6 5 33.3274 -6.41526 15.8783 0.0150498 -0.199581 -0.141316 1 
328 2 8.35487 7.70099 11.0817 -5 0 6 5.88287 14.7167 -15.3909 -0.225483 -0.875184 1.21564 1 
157 2 7.87369 9.29576 15.1339 -2 -1 -2 11.4174 -17.8586 -59.5376 -0.290581 -0.226733 0.397287 1 
158 1 8.67446 8.88496 14.7468 -2 -1 -2 -4.64551 8.11228 1.71145 1.52482 -0.831562 0.931018 16 
340 1 6.22446 5.7683 11.6935 6 6 5 4.76001 5.11126 -6.81535 0.000383506 -0.484784 -0.166801 16 
329 2 7.58602 8.45936 13.3963 0 1 1 -26.4086 -7.70127 -8.83409 -0.611893 0.379315 -1.01686 1 
142 2 6.44356 7.73112 12.775 0 0 1 -21.4126 -1.36219 -5.05043 -1.76275 -2.79277 0.0329723 1 
253 1 6.92525 8.49771 12.6161 0 0 1 -1.56451 4.2096 7.84247 2.69035 2.29711 0.78215 16 
96 2 10.1495 9.7545 13.6467 -5 -1 0 5.49698 42.0579 8.99379 -0.0581625 0.476231 -1.55936 1 